REMARK  Name = 2ya6_ligand
REMARK  10 active torsions:
REMARK  status: ('A' for Active; 'I' for Inactive)
REMARK    1  A    between atoms: C_1  and  C_2
REMARK    2  A    between atoms: C_4  and  O_15
REMARK    3  A    between atoms: C_5  and  N_12
REMARK    4  A    between atoms: C_6  and  C_7
REMARK    5  A    between atoms: C_7  and  C_8
REMARK    6  A    between atoms: C_7  and  O_17
REMARK    7  A    between atoms: C_8  and  C_9
REMARK    8  A    between atoms: C_8  and  O_18
REMARK    9  A    between atoms: C_9  and  O_19
REMARK   10  A    between atoms: C_10  and  C_11
REMARK                            x       y       z     vdW  Elec       q    Type
REMARK                         _______ _______ _______ _____ _____    ______ ____
ROOT
ATOM      1  C   UNL     1      14.880 -19.365  43.656  0.00  0.00    +0.108 C 
ATOM      2  C   UNL     1      13.773 -18.995  42.887  0.00  0.00    +0.094 C 
ATOM      3  C   UNL     1      13.991 -18.319  41.505  0.00  0.00    +0.193 C 
ATOM      4  C   UNL     1      15.344 -18.719  40.914  0.00  0.00    +0.206 C 
ATOM      5  C   UNL     1      16.447 -18.474  41.972  0.00  0.00    +0.273 C 
ATOM      6  O   UNL     1      16.163 -19.191  43.217  0.00  0.00    -0.516 OA
ENDROOT
BRANCH   4   9
ATOM      7  C   UNL     1      16.205 -18.427  38.637  0.00  0.00    +0.097 C 
ATOM      8  C   UNL     1      16.349 -17.466  37.438  0.00  0.00    +0.266 C 
ATOM      9  N   UNL     1      15.583 -17.921  39.687  0.00  0.00    -0.300 N 
ATOM     10  O   UNL     1      16.683 -19.570  38.605  0.00  0.00    -0.459 OA
ATOM     11  H   UNL     1      15.264 -16.974  39.654  0.00  0.00    +0.227 HD
ENDBRANCH   4   9
BRANCH   1  12
ATOM     12  C   UNL     1      14.730 -20.015  45.051  0.00  0.00    +0.091 C 
ATOM     13  O   UNL     1      13.597 -20.251  45.523  0.00  0.00    -0.559 OA
ATOM     14  O   UNL     1      15.790 -20.248  45.644  0.00  0.00    -0.559 OA
ENDBRANCH   1  12
BRANCH   3  15
ATOM     15  O   UNL     1      12.886 -18.543  40.618  0.00  0.00    -0.435 OA
ATOM     16  H   UNL     1      13.010 -18.035  39.825  0.00  0.00    +0.245 HD
ENDBRANCH   3  15
BRANCH   5  17
ATOM     17  C   UNL     1      17.873 -18.858  41.540  0.00  0.00    +0.208 C 
BRANCH  17  18
ATOM     18  O   UNL     1      17.874 -20.185  41.054  0.00  0.00    -0.431 OA
ATOM     19  H   UNL     1      17.659 -20.781  41.762  0.00  0.00    +0.242 HD
ENDBRANCH  17  18
BRANCH  17  20
ATOM     20  C   UNL     1      18.918 -18.743  42.654  0.00  0.00    +0.180 C 
BRANCH  20  21
ATOM     21  O   UNL     1      18.964 -17.394  43.128  0.00  0.00    -0.436 OA
ATOM     22  H   UNL     1      19.602 -17.327  43.829  0.00  0.00    +0.241 HD
ENDBRANCH  20  21
BRANCH  20  23
ATOM     23  C   UNL     1      20.295 -19.165  42.123  0.00  0.00    +0.235 C 
BRANCH  23  24
ATOM     24  O   UNL     1      21.282 -19.041  43.147  0.00  0.00    -0.448 OA
ATOM     25  H   UNL     1      21.325 -18.137  43.436  0.00  0.00    +0.236 HD
ENDBRANCH  23  24
ENDBRANCH  20  23
ENDBRANCH  17  20
ENDBRANCH   5  17
TORSDOF 9
