REMARK  Name = 3udd_ligand
REMARK  10 active torsions:
REMARK  status: ('A' for Active; 'I' for Inactive)
REMARK    1  A    between atoms: S_1  and  C_2
REMARK    2  A    between atoms: S_1  and  C_16
REMARK    3  A    between atoms: C_2  and  C_3
REMARK    4  A    between atoms: C_5  and  C_8
REMARK    5  A    between atoms: C_11  and  O_14
REMARK    6  A    between atoms: O_14  and  C_15
REMARK    7  A    between atoms: N_17  and  C_22
REMARK    8  A    between atoms: C_18  and  C_21
REMARK    9  A    between atoms: C_25  and  O_28
REMARK   10  A    between atoms: O_28  and  C_29
REMARK                            x       y       z     vdW  Elec       q    Type
REMARK                         _______ _______ _______ _____ _____    ______ ____
ROOT
ATOM      1  S   UNL     1     -23.970  -3.172  10.602  0.00  0.00    -0.031 S 
ENDROOT
BRANCH   1   2
ATOM      2  C   UNL     1     -24.890  -4.565  10.029  0.00  0.00    +0.155 A 
ATOM      3  N   UNL     1     -25.070  -4.872   8.755  0.00  0.00    -0.262 N 
ATOM      4  C   UNL     1     -25.769  -5.978   8.782  0.00  0.00    +0.082 A 
ATOM      5  N   UNL     1     -25.992  -6.406   9.952  0.00  0.00    -0.274 NA
ATOM      6  N   UNL     1     -25.374  -5.442  10.803  0.00  0.00    -0.253 NA
ATOM      7  C   UNL     1     -26.287  -6.756   7.596  0.00  0.00    +0.248 C 
BRANCH   3   8
ATOM      8  C   UNL     1     -24.653  -4.160   7.669  0.00  0.00    +0.047 A 
ATOM      9  C   UNL     1     -23.690  -4.682   6.777  0.00  0.00    +0.071 A 
ATOM     10  C   UNL     1     -23.259  -3.921   5.681  0.00  0.00    +0.072 A 
ATOM     11  C   UNL     1     -23.788  -2.634   5.456  0.00  0.00    +0.058 A 
ATOM     12  C   UNL     1     -24.747  -2.106   6.358  0.00  0.00    +0.072 A 
ATOM     13  C   UNL     1     -25.194  -2.880   7.438  0.00  0.00    +0.071 A 
BRANCH  11  14
ATOM     14  O   UNL     1     -23.271  -1.907   4.383  0.00  0.00    -0.552 OA
ATOM     15  C   UNL     1     -23.498  -0.503   4.156  0.00  0.00    +0.370 C 
ENDBRANCH  11  14
ENDBRANCH   3   8
ENDBRANCH   1   2
BRANCH   1  16
ATOM     16  C   UNL     1     -24.028  -3.614  12.373  0.00  0.00    +0.397 C 
BRANCH  16  17
ATOM     17  C   UNL     1     -23.306  -2.632  13.225  0.00  0.00    +0.221 C 
ATOM     18  N   UNL     1     -22.689  -1.588  12.930  0.00  0.00    -0.239 NA
ATOM     19  C   UNL     1     -22.133  -1.008  14.098  0.00  0.00    +0.136 C 
ATOM     20  N   UNL     1     -22.512  -1.696  15.104  0.00  0.00    -0.123 NA
ATOM     21  O   UNL     1     -23.266  -2.761  14.566  0.00  0.00    -0.366 OA
BRANCH  19  22
ATOM     22  C   UNL     1     -21.391   0.299  14.149  0.00  0.00    -0.000 A 
ATOM     23  C   UNL     1     -20.870   0.746  15.370  0.00  0.00    +0.036 A 
ATOM     24  C   UNL     1     -20.236   1.999  15.436  0.00  0.00    +0.069 A 
ATOM     25  C   UNL     1     -20.189   2.828  14.300  0.00  0.00    +0.061 A 
ATOM     26  C   UNL     1     -20.750   2.371  13.080  0.00  0.00    +0.069 A 
ATOM     27  C   UNL     1     -21.385   1.123  13.009  0.00  0.00    +0.036 A 
BRANCH  25  28
ATOM     28  O   UNL     1     -19.531   4.072  14.428  0.00  0.00    -0.549 OA
ATOM     29  C   UNL     1     -19.526   5.057  13.369  0.00  0.00    +0.376 C 
ENDBRANCH  25  28
ENDBRANCH  19  22
ENDBRANCH  16  17
ENDBRANCH   1  16
TORSDOF 7
