REMARK  Name = 5wuk_ligand
REMARK  5 active torsions:
REMARK  status: ('A' for Active; 'I' for Inactive)
REMARK    1  A    between atoms: C_2  and  C_18
REMARK    2  A    between atoms: C_5  and  C_20
REMARK    3  A    between atoms: C_11  and  S_24
REMARK    4  A    between atoms: C_14  and  S_24
REMARK    5  A    between atoms: N_19  and  C_20
REMARK                            x       y       z     vdW  Elec       q    Type
REMARK                         _______ _______ _______ _____ _____    ______ ____
ROOT
ATOM      1  C   UNL     1      17.634 -18.962 -20.885  0.00  0.00    +0.160 C 
ATOM      2  C   UNL     1      18.501 -19.857 -21.413  0.00  0.00    +0.044 C 
ATOM      3  C   UNL     1      19.894 -19.386 -21.591  0.00  0.00    +0.129 A 
ATOM      4  C   UNL     1      21.516 -18.131 -21.467  0.00  0.00    +0.315 A 
ATOM      5  N   UNL     1      20.231 -18.176 -21.225  0.00  0.00    -0.177 N 
ATOM      6  C   UNL     1      19.385 -17.301 -20.680  0.00  0.00    +0.170 C 
ATOM      7  N   UNL     1      18.151 -17.666 -20.509  0.00  0.00    -0.271 NA
ATOM      8  N   UNL     1      19.807 -16.100 -20.311  0.00  0.00    -0.271 N 
ATOM      9  N   UNL     1      20.856 -20.088 -22.049  0.00  0.00    -0.261 NA
ATOM     10  N   UNL     1      21.987 -19.213 -21.959  0.00  0.00    -0.267 NA
ATOM     11  H   UNL     1      20.798 -15.879 -20.486  0.00  0.00    +0.254 HD
ENDROOT
BRANCH   2  17
ATOM     12  C   UNL     1      18.339 -21.644 -23.185  0.00  0.00    +0.027 A 
ATOM     13  C   UNL     1      17.848 -22.868 -23.667  0.00  0.00    +0.068 A 
ATOM     14  C   UNL     1      17.006 -23.641 -22.835  0.00  0.00    +0.077 A 
ATOM     15  C   UNL     1      16.647 -23.193 -21.549  0.00  0.00    +0.068 A 
ATOM     16  C   UNL     1      17.173 -21.990 -21.053  0.00  0.00    +0.027 A 
ATOM     17  C   UNL     1      18.019 -21.213 -21.877  0.00  0.00    -0.026 A 
BRANCH  14  19
ATOM     18  C   UNL     1      17.826 -26.183 -23.523  0.00  0.00    +0.361 C 
ATOM     19  S   UNL     1      16.328 -25.172 -23.455  0.00  0.00    -0.068 S 
ATOM     20  O   UNL     1      15.854 -24.950 -24.809  0.00  0.00    -0.274 OA
ATOM     21  O   UNL     1      15.379 -25.700 -22.490  0.00  0.00    -0.274 OA
ENDBRANCH  14  19
ENDBRANCH   2  17
BRANCH   8  22
ATOM     22  C   UNL     1      18.994 -15.057 -19.677  0.00  0.00    +0.342 C 
BRANCH  22  23
ATOM     23  C   UNL     1      19.101 -15.081 -18.160  0.00  0.00    +0.088 A 
ATOM     24  C   UNL     1      18.128 -15.409 -17.294  0.00  0.00    +0.031 A 
ATOM     25  C   UNL     1      18.799 -15.259 -15.981  0.00  0.00    +0.020 A 
ATOM     26  C   UNL     1      20.043 -14.854 -16.314  0.00  0.00    +0.217 A 
ATOM     27  O   UNL     1      20.287 -14.730 -17.632  0.00  0.00    -0.504 OA
ENDBRANCH  22  23
ENDBRANCH   8  22
TORSDOF 4
