REMARK  19 active torsions:
REMARK  status: ('A' for Active; 'I' for Inactive)
REMARK    1  A    between atoms: C10_14  and  O6_16 
REMARK    2  A    between atoms: C11_17  and  C43_56 
REMARK    3  A    between atoms: C16_22  and  O7_23 
REMARK    4  A    between atoms: O7_23  and  C50_63 
REMARK    5  A    between atoms: C17_24  and  C44_57 
REMARK    6  A    between atoms: C23_30  and  C45_58 
REMARK    7  A    between atoms: C25_32  and  C46_59 
REMARK    8  A    between atoms: C27_35  and  O9_36 
REMARK    9  A    between atoms: O9_36  and  C51_64 
REMARK   10  A    between atoms: C28_37  and  O10_38 
REMARK   11  A    between atoms: C29_39  and  C47_60 
REMARK   12  A    between atoms: C31_41  and  C48_61 
REMARK   13  A    between atoms: C34_45  and  C35_46 
REMARK   14  A    between atoms: C35_46  and  C36_47 
REMARK   15  A    between atoms: C35_46  and  C49_62 
REMARK   16  A    between atoms: C36_47  and  C37_48 
REMARK   17  A    between atoms: C39_50  and  O12_51 
REMARK   18  A    between atoms: O12_51  and  C52_65 
REMARK   19  A    between atoms: C40_52  and  O13_53 
ROOT
ATOM      1  C1  RAP d   1       4.633   8.500  12.847  0.00  0.00     0.282 C 
ATOM      2  O1  RAP d   1       4.264   9.593  13.679  0.00  0.00    -0.314 OA
ATOM      3  O2  RAP d   1       5.367   8.726  11.888  0.00  0.00    -0.263 OA
ATOM      4  C2  RAP d   1       4.177   7.070  13.135  0.00  0.00     0.099 C 
ATOM      5  C3  RAP d   1       3.720   6.374  11.862  0.00  0.00    -0.037 C 
ATOM      6  C4  RAP d   1       2.354   6.832  11.372  0.00  0.00    -0.061 C 
ATOM      7  C5  RAP d   1       1.360   6.653  12.505  0.00  0.00    -0.050 C 
ATOM      8  C6  RAP d   1       1.783   7.430  13.713  0.00  0.00    -0.001 C 
ATOM      9  N7  RAP d   1       3.105   6.934  14.127  0.00  0.00    -0.331 N 
ATOM     10  C8  RAP d   1       3.385   6.549  15.382  0.00  0.00     0.296 C 
ATOM     11  O3  RAP d   1       4.552   6.237  15.654  0.00  0.00    -0.264 OA
ATOM     12  C9  RAP d   1       2.397   6.409  16.381  0.00  0.00     0.278 C 
ATOM     13  O4  RAP d   1       1.783   5.339  16.474  0.00  0.00    -0.281 OA
ATOM     14  C10 RAP d   1       2.056   7.541  17.368  0.00  0.00     0.238 C 
ATOM     15  O5  RAP d   1       1.280   8.457  16.631  0.00  0.00    -0.343 OA
ATOM     16  C11 RAP d   1       3.332   8.282  17.940  0.00  0.00     0.005 C 
ATOM     17  C12 RAP d   1       2.942   9.591  18.664  0.00  0.00    -0.054 C 
ATOM     18  C13 RAP d   1       2.010  10.423  17.795  0.00  0.00    -0.040 C 
ATOM     19  C14 RAP d   1       0.842   9.628  17.221  0.00  0.00     0.045 C 
ATOM     20  C15 RAP d   1       0.193  10.413  16.094  0.00  0.00    -0.013 C 
ATOM     21  C16 RAP d   1      -0.582  11.664  16.490  0.00  0.00     0.061 C 
ATOM     22  C17 RAP d   1      -1.145  12.371  15.276  0.00  0.00    -0.055 C 
ATOM     23  C18 RAP d   1      -0.672  13.571  14.967  0.00  0.00    -0.079 C 
ATOM     24  C19 RAP d   1      -1.096  14.367  13.807  0.00  0.00    -0.083 C 
ATOM     25  C20 RAP d   1      -0.586  15.578  13.634  0.00  0.00    -0.083 C 
ATOM     26  C21 RAP d   1      -0.900  16.377  12.435  0.00  0.00    -0.086 C 
ATOM     27  C22 RAP d   1      -0.248  17.488  12.149  0.00  0.00    -0.099 C 
ATOM     28  C23 RAP d   1      -0.450  18.289  10.881  0.00  0.00    -0.041 C 
ATOM     29  C24 RAP d   1       0.911  18.401  10.216  0.00  0.00    -0.050 C 
ATOM     30  C25 RAP d   1       1.674  17.112   9.975  0.00  0.00     0.004 C 
ATOM     31  C26 RAP d   1       3.157  17.391   9.771  0.00  0.00     0.162 C 
ATOM     32  O8  RAP d   1       3.611  17.669   8.663  0.00  0.00    -0.295 OA
ATOM     33  C27 RAP d   1       4.048  17.297  11.005  0.00  0.00     0.123 C 
ATOM     34  C28 RAP d   1       4.513  15.841  11.329  0.00  0.00     0.088 C 
ATOM     35  C29 RAP d   1       3.462  15.014  12.094  0.00  0.00    -0.056 C 
ATOM     36  C30 RAP d   1       2.808  13.989  11.549  0.00  0.00    -0.088 C 
ATOM     37  C31 RAP d   1       1.773  13.042  12.175  0.00  0.00     0.017 C 
ATOM     38  C32 RAP d   1       2.433  11.701  12.495  0.00  0.00     0.136 C 
ATOM     39  O11 RAP d   1       2.264  10.701  11.791  0.00  0.00    -0.297 OA
ATOM     40  C33 RAP d   1       3.358  11.693  13.707  0.00  0.00     0.016 C 
ATOM     41  C34 RAP d   1       4.630  10.909  13.455  0.00  0.00     0.057 C 
ATOM     42  H1  RAP d   1       5.054   6.532  13.525  0.00  0.00     0.088 H 
ATOM     43  H2  RAP d   1       3.675   5.292  12.055  0.00  0.00     0.036 H 
ATOM     44  H3  RAP d   1       4.458   6.575  11.072  0.00  0.00     0.036 H 
ATOM     45  H4  RAP d   1       2.046   6.226  10.507  0.00  0.00     0.033 H 
ATOM     46  H5  RAP d   1       2.399   7.892  11.080  0.00  0.00     0.033 H 
ATOM     47  H6  RAP d   1       1.299   5.586  12.766  0.00  0.00     0.035 H 
ATOM     48  H7  RAP d   1       0.372   7.007  12.177  0.00  0.00     0.035 H 
ATOM     49  H8  RAP d   1       1.057   7.283  14.526  0.00  0.00     0.064 H 
ATOM     50  H9  RAP d   1       1.845   8.500  13.467  0.00  0.00     0.064 H 
ATOM     51  H11 RAP d   1       3.935   8.567  17.066  0.00  0.00     0.048 H 
ATOM     52  H12 RAP d   1       3.852  10.171  18.878  0.00  0.00     0.034 H 
ATOM     53  H13 RAP d   1       2.433   9.345  19.608  0.00  0.00     0.034 H 
ATOM     54  H14 RAP d   1       2.592  10.839  16.959  0.00  0.00     0.036 H 
ATOM     55  H15 RAP d   1       1.606  11.244  18.405  0.00  0.00     0.036 H 
ATOM     56  H16 RAP d   1       0.115   9.412  18.018  0.00  0.00     0.083 H 
ATOM     57  H17 RAP d   1      -0.505   9.738  15.576  0.00  0.00     0.041 H 
ATOM     58  H18 RAP d   1       0.989  10.720  15.400  0.00  0.00     0.041 H 
ATOM     59  H19 RAP d   1       0.086  12.352  17.029  0.00  0.00     0.090 H 
ATOM     60  H20 RAP d   1       0.087  13.998  15.621  0.00  0.00     0.083 H 
ATOM     61  H21 RAP d   1      -1.820  13.967  13.099  0.00  0.00     0.083 H 
ATOM     62  H22 RAP d   1       0.078  15.991  14.392  0.00  0.00     0.083 H 
ATOM     63  H23 RAP d   1      -1.692  16.041  11.767  0.00  0.00     0.083 H 
ATOM     64  H24 RAP d   1       0.482  17.852  12.871  0.00  0.00     0.077 H 
ATOM     65  H25 RAP d   1      -1.147  17.760  10.215  0.00  0.00     0.045 H 
ATOM     66  H26 RAP d   1       1.538  19.043  10.852  0.00  0.00     0.035 H 
ATOM     67  H27 RAP d   1       0.763  18.885   9.239  0.00  0.00     0.035 H 
ATOM     68  H28 RAP d   1       1.569  16.487  10.874  0.00  0.00     0.051 H 
ATOM     69  H29 RAP d   1       3.499  17.700  11.869  0.00  0.00     0.100 H 
ATOM     70  H30 RAP d   1       5.421  15.894  11.947  0.00  0.00     0.094 H 
ATOM     71  H32 RAP d   1       3.042  13.793  10.504  0.00  0.00     0.078 H 
ATOM     72  H33 RAP d   1       1.378  13.486  13.101  0.00  0.00     0.057 H 
ATOM     73  H34 RAP d   1       2.825  11.239  14.556  0.00  0.00     0.048 H 
ATOM     74  H35 RAP d   1       3.626  12.731  13.955  0.00  0.00     0.048 H 
ATOM     75  H36 RAP d   1       4.940  11.066  12.411  0.00  0.00     0.085 H 
ENDROOT
BRANCH  41  76
ATOM     76  C35 RAP d   1       5.846  11.169  14.367  0.00  0.00    -0.031 C 
ATOM     77  H37 RAP d   1       6.563  10.355  14.187  0.00  0.00     0.043 H 
BRANCH  76  78
ATOM     78  C36 RAP d   1       6.551  12.480  14.027  0.00  0.00    -0.056 C 
ATOM     79  H38 RAP d   1       7.335  12.639  14.782  0.00  0.00     0.034 H 
ATOM     80  H39 RAP d   1       5.805  13.285  14.099  0.00  0.00     0.034 H 
BRANCH  78  81
ATOM     81  C37 RAP d   1       7.210  12.586  12.650  0.00  0.00    -0.051 C 
ATOM     82  C38 RAP d   1       7.812  13.983  12.461  0.00  0.00    -0.035 C 
ATOM     83  C39 RAP d   1       8.386  14.202  11.059  0.00  0.00     0.063 C 
ATOM     84  H41 RAP d   1       8.619  14.119  13.195  0.00  0.00     0.037 H 
ATOM     85  H42 RAP d   1       7.025  14.731  12.638  0.00  0.00     0.037 H 
ATOM     86  C40 RAP d   1       9.399  13.057  10.711  0.00  0.00     0.060 C 
ATOM     87  H43 RAP d   1       7.577  14.216  10.314  0.00  0.00     0.087 H 
ATOM     88  C41 RAP d   1       8.819  11.645  10.930  0.00  0.00    -0.038 C 
ATOM     89  H44 RAP d   1      10.281  13.170  11.359  0.00  0.00     0.086 H 
ATOM     90  C42 RAP d   1       8.243  11.505  12.332  0.00  0.00    -0.059 C 
ATOM     91  H46 RAP d   1       9.619  10.902  10.794  0.00  0.00     0.036 H 
ATOM     92  H47 RAP d   1       8.022  11.465  10.194  0.00  0.00     0.036 H 
ATOM     93  H48 RAP d   1       7.761  10.520  12.419  0.00  0.00     0.033 H 
ATOM     94  H49 RAP d   1       9.065  11.577  13.060  0.00  0.00     0.033 H 
ATOM     95  H40 RAP d   1       6.405  12.472  11.909  0.00  0.00     0.040 H 
BRANCH  83  96
ATOM     96  O12 RAP d   1       9.041  15.444  11.086  0.00  0.00    -0.388 OA
BRANCH  96  97
ATOM     97  C52 RAP d   1       8.352  16.524  10.556  0.00  0.00     0.005 C 
ATOM     98  H77 RAP d   1       8.971  17.430  10.638  0.00  0.00     0.066 H 
ATOM     99  H78 RAP d   1       7.414  16.669  11.112  0.00  0.00     0.066 H 
ATOM    100  H79 RAP d   1       8.124  16.330   9.498  0.00  0.00     0.066 H 
ENDBRANCH  96  97
ENDBRANCH  83  96
BRANCH  86 101
ATOM    101  O13 RAP d   1       9.803  13.189   9.349  0.00  0.00    -0.393 OA
ATOM    102  H45 RAP d   1       9.041  13.124   8.786  0.00  0.00     0.210 HD
ENDBRANCH  86 101
ENDBRANCH  78  81
ENDBRANCH  76  78
BRANCH  76 103
ATOM    103  C49 RAP d   1       5.482  11.130  15.824  0.00  0.00    -0.070 C 
ATOM    104  H68 RAP d   1       4.976  10.180  16.050  0.00  0.00     0.028 H 
ATOM    105  H69 RAP d   1       4.809  11.968  16.056  0.00  0.00     0.028 H 
ATOM    106  H70 RAP d   1       6.395  11.213  16.432  0.00  0.00     0.028 H 
ENDBRANCH  76 103
ENDBRANCH  41  76
BRANCH  37 107
ATOM    107  C48 RAP d   1       0.625  12.830  11.175  0.00  0.00    -0.063 C 
ATOM    108  H65 RAP d   1       0.153  13.797  10.948  0.00  0.00     0.028 H 
ATOM    109  H66 RAP d   1      -0.122  12.152  11.613  0.00  0.00     0.028 H 
ATOM    110  H67 RAP d   1       1.022  12.389  10.249  0.00  0.00     0.028 H 
ENDBRANCH  37 107
BRANCH  35 111
ATOM    111  C47 RAP d   1       3.222  15.475  13.519  0.00  0.00    -0.052 C 
ATOM    112  H62 RAP d   1       2.462  14.834  13.989  0.00  0.00     0.033 H 
ATOM    113  H63 RAP d   1       2.869  16.517  13.513  0.00  0.00     0.033 H 
ATOM    114  H64 RAP d   1       4.161  15.409  14.089  0.00  0.00     0.033 H 
ENDBRANCH  35 111
BRANCH  34 115
ATOM    115  O10 RAP d   1       4.824  15.200  10.084  0.00  0.00    -0.388 OA
ATOM    116  H31 RAP d   1       5.111  14.310  10.250  0.00  0.00     0.210 HD
ENDBRANCH  34 115
BRANCH  33 117
ATOM    117  O9  RAP d   1       5.210  18.050  10.778  0.00  0.00    -0.380 OA
BRANCH 117 118
ATOM    118  C51 RAP d   1       5.134  19.387  11.130  0.00  0.00     0.005 C 
ATOM    119  H74 RAP d   1       6.093  19.879  10.911  0.00  0.00     0.066 H 
ATOM    120  H75 RAP d   1       4.916  19.471  12.205  0.00  0.00     0.066 H 
ATOM    121  H76 RAP d   1       4.333  19.873  10.554  0.00  0.00     0.066 H 
ENDBRANCH 117 118
ENDBRANCH  33 117
BRANCH  14 122
ATOM    122  O6  RAP d   1       1.310   6.992  18.458  0.00  0.00    -0.359 OA
ATOM    123  H10 RAP d   1       0.545   6.540  18.121  0.00  0.00     0.213 HD
ENDBRANCH  14 122
BRANCH  16 124
ATOM    124  C43 RAP d   1       4.258   7.412  18.840  0.00  0.00    -0.068 C 
ATOM    125  H50 RAP d   1       4.523   6.487  18.307  0.00  0.00     0.028 H 
ATOM    126  H51 RAP d   1       3.732   7.160  19.772  0.00  0.00     0.028 H 
ATOM    127  H52 RAP d   1       5.173   7.974  19.076  0.00  0.00     0.028 H 
ENDBRANCH  16 124
BRANCH  30 128
ATOM    128  C46 RAP d   1       1.099  16.327   8.793  0.00  0.00    -0.066 C 
ATOM    129  H59 RAP d   1       1.677  15.402   8.651  0.00  0.00     0.028 H 
ATOM    130  H60 RAP d   1       1.159  16.940   7.882  0.00  0.00     0.028 H 
ATOM    131  H61 RAP d   1       0.048  16.074   8.997  0.00  0.00     0.028 H 
ENDBRANCH  30 128
BRANCH  28 132
ATOM    132  C45 RAP d   1      -1.014  19.668  11.190  0.00  0.00    -0.070 C 
ATOM    133  H56 RAP d   1      -1.998  19.562  11.670  0.00  0.00     0.028 H 
ATOM    134  H57 RAP d   1      -1.121  20.238  10.255  0.00  0.00     0.028 H 
ATOM    135  H58 RAP d   1      -0.331  20.200  11.868  0.00  0.00     0.028 H 
ENDBRANCH  28 132
BRANCH  21 136
ATOM    136  O7  RAP d   1      -1.627  11.272  17.324  0.00  0.00    -0.386 OA
BRANCH 136 137
ATOM    137  C50 RAP d   1      -2.123  12.243  18.189  0.00  0.00     0.005 C 
ATOM    138  H71 RAP d   1      -2.939  11.816  18.791  0.00  0.00     0.066 H 
ATOM    139  H72 RAP d   1      -2.505  13.094  17.605  0.00  0.00     0.066 H 
ATOM    140  H73 RAP d   1      -1.318  12.587  18.855  0.00  0.00     0.066 H 
ENDBRANCH 136 137
ENDBRANCH  21 136
BRANCH  22 141
ATOM    141  C44 RAP d   1      -2.257  11.621  14.522  0.00  0.00    -0.052 C 
ATOM    142  H53 RAP d   1      -2.589  12.224  13.664  0.00  0.00     0.033 H 
ATOM    143  H54 RAP d   1      -3.107  11.448  15.199  0.00  0.00     0.033 H 
ATOM    144  H55 RAP d   1      -1.871  10.655  14.164  0.00  0.00     0.033 H 
ENDBRANCH  22 141
TORSDOF 19
