REMARK  Name = 5cst_ligand
REMARK  8 active torsions:
REMARK  status: ('A' for Active; 'I' for Inactive)
REMARK    1  A    between atoms: P_2  and  O_5
REMARK    2  A    between atoms: O_5  and  P_6
REMARK    3  A    between atoms: P_6  and  O_9
REMARK    4  A    between atoms: O_9  and  C_10
REMARK    5  A    between atoms: C_10  and  C_11
REMARK    6  A    between atoms: C_13  and  O_14
REMARK    7  A    between atoms: C_15  and  O_16
REMARK    8  A    between atoms: C_17  and  N_18
REMARK                            x       y       z     vdW  Elec       q    Type
REMARK                         _______ _______ _______ _____ _____    ______ ____
ROOT
ATOM      1  C   UNL     1     -17.118 -15.166   6.065  0.00  0.00    +0.220 C 
ATOM      2  O   UNL     1     -15.920 -15.006   5.303  0.00  0.00    -0.382 OA
ATOM      3  C   UNL     1     -17.927 -16.236   5.351  0.00  0.00    +0.206 C 
ATOM      4  C   UNL     1     -17.706 -15.774   3.938  0.00  0.00    +0.232 C 
ATOM      5  C   UNL     1     -16.229 -15.336   3.954  0.00  0.00    +0.330 C 
ENDROOT
BRANCH   5   6
ATOM      6  N   UNL     1     -15.269 -16.363   3.429  0.00  0.00    -0.199 N 
ATOM      7  C   UNL     1     -15.031 -16.437   2.032  0.00  0.00    +0.242 A 
ATOM      8  O   UNL     1     -15.622 -15.697   1.198  0.00  0.00    -0.387 OA
ATOM      9  N   UNL     1     -14.154 -17.369   1.572  0.00  0.00    -0.225 N 
ATOM     10  C   UNL     1     -13.546 -18.215   2.408  0.00  0.00    +0.042 A 
ATOM     11  N   UNL     1     -12.709 -19.071   1.881  0.00  0.00    -0.423 NA
ATOM     12  C   UNL     1     -13.766 -18.188   3.784  0.00  0.00    +0.094 A 
ATOM     13  C   UNL     1     -14.650 -17.233   4.261  0.00  0.00    +0.234 A 
ATOM     14  H   UNL     1     -13.961 -17.422   0.592  0.00  0.00    +0.306 HD
ATOM     15  H   UNL     1     -12.225 -19.730   2.470  0.00  0.00    +0.074 HD
ENDBRANCH   5   6
BRANCH   3  16
ATOM     16  O   UNL     1     -19.289 -16.262   5.792  0.00  0.00    -0.431 OA
ATOM     17  H   UNL     1     -19.693 -15.419   5.620  0.00  0.00    +0.242 HD
ENDBRANCH   3  16
BRANCH   4  18
ATOM     18  O   UNL     1     -18.547 -14.639   3.648  0.00  0.00    -0.423 OA
ATOM     19  H   UNL     1     -18.398 -14.357   2.753  0.00  0.00    +0.245 HD
ENDBRANCH   4  18
BRANCH   1  20
ATOM     20  C   UNL     1     -16.796 -15.528   7.497  0.00  0.00    +0.341 C 
BRANCH  20  21
ATOM     21  O   UNL     1     -16.247 -16.811   7.676  0.00  0.00    -0.318 OA
BRANCH  21  22
ATOM     22  P   UNL     1     -15.852 -17.103   9.220  0.00  0.00    +0.231 P 
ATOM     23  O   UNL     1     -15.128 -18.433   9.178  0.00  0.00    -0.506 OA
ATOM     24  O   UNL     1     -17.109 -17.029  10.066  0.00  0.00    -0.506 OA
BRANCH  22  25
ATOM     25  O   UNL     1     -14.915 -15.773   9.528  0.00  0.00    -0.247 OA
BRANCH  25  27
ATOM     26  O   UNL     1     -14.474 -16.575  11.830  0.00  0.00    -0.551 OA
ATOM     27  P   UNL     1     -14.212 -15.361  10.947  0.00  0.00    +0.164 P 
ATOM     28  O   UNL     1     -12.764 -15.162  10.705  0.00  0.00    -0.551 OA
ATOM     29  O   UNL     1     -14.871 -14.096  11.461  0.00  0.00    -0.551 OA
ENDBRANCH  25  27
ENDBRANCH  22  25
ENDBRANCH  21  22
ENDBRANCH  20  21
ENDBRANCH   1  20
TORSDOF 8
