REMARK  Name = 1hii_ligand
REMARK  22 active torsions:
REMARK  status: ('A' for Active; 'I' for Inactive)
REMARK    1  A    between atoms: C_1  and  C_2
REMARK    2  A    between atoms: N_4  and  C_5
REMARK    3  A    between atoms: C_5  and  C_6
REMARK    4  A    between atoms: C_5  and  C_9
REMARK    5  A    between atoms: C_6  and  C_7
REMARK    6  A    between atoms: C_6  and  C_8
REMARK    7  A    between atoms: N_11  and  C_12
REMARK    8  A    between atoms: C_12  and  C_13
REMARK    9  A    between atoms: C_12  and  C_20
REMARK   10  A    between atoms: C_13  and  C_14
REMARK   11  A    between atoms: C_20  and  O_21
REMARK   12  A    between atoms: C_20  and  C_22
REMARK   13  A    between atoms: C_22  and  N_23
REMARK   14  A    between atoms: N_23  and  C_24
REMARK   15  A    between atoms: N_23  and  N_31
REMARK   16  A    between atoms: C_24  and  C_25
REMARK   17  A    between atoms: C_32  and  C_34
REMARK   18  A    between atoms: C_34  and  N_35
REMARK   19  A    between atoms: C_34  and  C_36
REMARK   20  A    between atoms: C_36  and  C_37
REMARK   21  A    between atoms: C_36  and  C_38
REMARK   22  A    between atoms: C_39  and  C_41
REMARK                            x       y       z     vdW  Elec       q    Type
REMARK                         _______ _______ _______ _____ _____    ______ ____
ROOT
ATOM      1  C   UNL     1      17.072  30.015  12.629  0.00  0.00    +0.163 C 
ENDROOT
BRANCH   1   2
ATOM      2  O   UNL     1      18.339  29.746  13.215  0.00  0.00    -0.437 OA
ATOM      3  H   UNL     1      18.448  28.808  13.314  0.00  0.00    +0.242 HD
ENDBRANCH   1   2
BRANCH   1   4
ATOM      4  C   UNL     1      16.106  29.424  13.614  0.00  0.00    +0.221 C 
BRANCH   4   5
ATOM      5  N   UNL     1      14.808  29.230  13.057  0.00  0.00    +0.468 N 
ATOM      6  H   UNL     1      14.327  30.107  12.932  0.00  0.00    +0.204 HD
BRANCH   5   7
ATOM      7  N   UNL     1      14.940  28.565  11.776  0.00  0.00    -0.293 N 
ATOM      8  C   UNL     1      14.288  28.996  10.692  0.00  0.00    +0.143 C 
ATOM      9  O   UNL     1      13.743  30.107  10.623  0.00  0.00    -0.433 OA
ATOM     10  H   UNL     1      15.534  27.764  11.701  0.00  0.00    +0.269 HD
BRANCH   8  11
ATOM     11  C   UNL     1      14.241  28.036   9.501  0.00  0.00    +0.247 C 
BRANCH  11  12
ATOM     12  N   UNL     1      12.979  27.304   9.480  0.00  0.00    -0.289 N 
ATOM     13  C   UNL     1      12.929  25.981   9.621  0.00  0.00    +0.101 C 
ATOM     14  O   UNL     1      13.943  25.276   9.760  0.00  0.00    -0.458 OA
ATOM     15  C   UNL     1      11.579  25.288   9.590  0.00  0.00    +0.268 C 
ATOM     16  H   UNL     1      12.126  27.811   9.356  0.00  0.00    +0.234 HD
ENDBRANCH  11  12
BRANCH  11  17
ATOM     17  C   UNL     1      14.468  28.809   8.167  0.00  0.00    +0.046 C 
ATOM     18  C   UNL     1      15.720  29.682   8.241  0.00  0.00    +0.035 C 
ATOM     19  C   UNL     1      14.630  27.813   7.028  0.00  0.00    +0.035 C 
ENDBRANCH  11  17
ENDBRANCH   8  11
ENDBRANCH   5   7
BRANCH   5  20
ATOM     20  C   UNL     1      14.137  28.421  14.049  0.00  0.00    +0.164 C 
BRANCH  20  21
ATOM     21  C   UNL     1      12.683  28.379  13.656  0.00  0.00    +0.010 C 
ATOM     22  C   UNL     1      11.787  28.873  14.775  0.00  0.00    +0.018 C 
ATOM     23  C   UNL     1      10.339  28.793  14.404  0.00  0.00    +0.004 C 
ATOM     24  C   UNL     1       9.976  27.385  14.050  0.00  0.00    +0.001 C 
ATOM     25  C   UNL     1      10.867  26.839  12.954  0.00  0.00    +0.004 C 
ATOM     26  C   UNL     1      12.299  26.945  13.351  0.00  0.00    +0.018 C 
ENDBRANCH  20  21
ENDBRANCH   5  20
ENDBRANCH   4   5
ENDBRANCH   1   4
BRANCH   1  27
ATOM     27  C   UNL     1      16.853  31.533  12.416  0.00  0.00    +0.153 C 
BRANCH  27  30
ATOM     28  C   UNL     1      16.304  33.148  14.183  0.00  0.00    +0.131 C 
ATOM     29  O   UNL     1      15.163  33.356  13.736  0.00  0.00    -0.445 OA
ATOM     30  N   UNL     1      17.173  32.313  13.610  0.00  0.00    -0.301 N 
ATOM     31  H   UNL     1      18.082  32.217  14.015  0.00  0.00    +0.227 HD
BRANCH  28  32
ATOM     32  C   UNL     1      16.794  33.868  15.455  0.00  0.00    +0.238 C 
BRANCH  32  36
ATOM     33  C   UNL     1      18.542  37.227  14.994  0.00  0.00    +0.268 C 
ATOM     34  C   UNL     1      18.321  35.770  15.416  0.00  0.00    +0.101 C 
ATOM     35  O   UNL     1      19.244  35.111  15.921  0.00  0.00    -0.458 OA
ATOM     36  N   UNL     1      17.098  35.276  15.224  0.00  0.00    -0.292 N 
ATOM     37  H   UNL     1      16.370  35.887  14.913  0.00  0.00    +0.234 HD
ENDBRANCH  32  36
BRANCH  32  38
ATOM     38  C   UNL     1      15.773  33.717  16.622  0.00  0.00    +0.044 C 
ATOM     39  C   UNL     1      15.402  32.240  16.869  0.00  0.00    +0.034 C 
ATOM     40  C   UNL     1      16.358  34.341  17.912  0.00  0.00    +0.034 C 
ENDBRANCH  32  38
ENDBRANCH  28  32
ENDBRANCH  27  30
BRANCH  27  41
ATOM     41  C   UNL     1      17.713  31.996  11.253  0.00  0.00    +0.141 C 
BRANCH  41  42
ATOM     42  C   UNL     1      17.670  33.494  11.054  0.00  0.00    -0.071 A 
ATOM     43  C   UNL     1      18.479  34.398  11.909  0.00  0.00    -0.000 A 
ATOM     44  C   UNL     1      18.381  35.774  11.693  0.00  0.00    -0.006 A 
ATOM     45  C   UNL     1      17.550  36.299  10.679  0.00  0.00    -0.012 A 
ATOM     46  C   UNL     1      16.777  35.472   9.850  0.00  0.00    -0.006 A 
ATOM     47  C   UNL     1      16.812  34.085   9.999  0.00  0.00    -0.000 A 
ENDBRANCH  41  42
ENDBRANCH  27  41
ENDBRANCH   1  27
TORSDOF 16
